# vtk DataFile Version 3.0
vtk output
ASCII
DATASET POLYDATA
POINTS 5828 float
-3.34960890 9.07812500 -1.12890601
-3.34960890 7.03906298 -3.62890601
-3.34960890 11.90625000 -3.62890601
-3.34960890 7.03906298 -1.14062500
3.34960890 11.90625000 3.45117211
-3.34960890 7.03906298 3.45117211
-3.34960890 11.90625000 3.45117211
3.34960890 7.03906298 3.45117211
3.34960890 11.90625000 -3.62890601
3.34960890 7.03906298 3.45117211
3.34960890 11.90625000 3.45117211
3.34960890 7.03906298 -3.62890601
-3.34960890 11.90625000 -3.62890601
3.34960890 7.03906298 -3.62890601
3.34960890 11.90625000 -3.62890601
-3.34960890 7.03906298 -3.62890601
-3.34960890 11.90625000 3.45117211
-3.34960890 9.07812500 0.81005901
-3.34960890 7.03906298 3.45117211
-3.34960890 7.03906298 0.82177699
2.53320289 7.39453077 -3.77734399
2.53320289 8.02343845 -2.85937500
2.53320289 7.39453077 -2.85937500
2.53320289 8.02343845 -3.77734399
2.53320289 7.39453077 -2.85937500
3.46289110 8.02343845 -2.85937500
3.46289110 7.39453077 -2.85937500
2.53320289 8.02343845 -2.85937500
3.46289110 7.39453077 -2.85937500
3.46289110 8.02343845 -3.77734399
3.46289110 7.39453077 -3.77734399
3.46289110 8.02343845 -2.85937500
3.46289110 7.39453077 -3.77734399
2.53320289 8.02343845 -3.77734399
2.53320289 7.39453077 -3.77734399
3.46289110 8.02343845 -3.77734399
2.53320289 7.39453077 2.76757789
2.53320289 8.02343845 3.68554711
2.53320289 7.39453077 3.68554711
2.53320289 8.02343845 2.76757789
2.53320289 7.39453077 3.68554711
3.46289110 8.02343845 3.68554711
3.46289110 7.39453077 3.68554711
2.53320289 8.02343845 3.68554711
3.46289110 7.39453077 3.68554711
3.46289110 8.02343845 2.76757789
3.46289110 7.39453077 2.76757789
3.46289110 8.02343845 3.68554711
3.46289110 7.39453077 2.76757789
2.53320289 8.02343845 2.76757789
2.53320289 7.39453077 2.76757789
3.46289110 8.02343845 2.76757789
-3.58007789 7.39453077 2.76757789
-3.58007789 8.02343845 3.68554711
-3.58007789 7.39453077 3.68554711
-3.58007789 8.02343845 2.76757789
-3.58007789 7.39453077 3.68554711
-2.65039110 8.02343845 3.68554711
-2.65039110 7.39453077 3.68554711
-3.58007789 8.02343845 3.68554711
-2.65039110 7.39453077 3.68554711
-2.65039110 8.02343845 2.76757789
-2.65039110 7.39453077 2.76757789
-2.65039110 8.02343845 3.68554711
-2.65039110 7.39453077 2.76757789
-3.58007789 8.02343845 2.76757789
-3.58007789 7.39453077 2.76757789
-2.65039110 8.02343845 2.76757789
-3.44531298 7.99609423 -1.30175805
-3.44531298 8.15625000 -0.93408197
-3.44531298 7.99609423 -0.93408197
-3.44531298 8.15625000 -1.30175805
-3.44531298 7.99609423 -0.93408197
-3.06835890 8.15625000 -0.93408197
-3.06835890 7.99609423 -0.93408197
-3.44531298 8.15625000 -0.93408197
-3.06835890 7.99609423 -1.30175805
-3.44531298 8.15625000 -1.30175805
-3.44531298 7.99609423 -1.30175805
-3.06835890 8.15625000 -1.30175805
-3.44531298 7.31640577 -0.93408197
-3.44531298 6.83593798 -1.30175805
-3.44531298 7.31640577 -1.30175805
-3.44531298 6.83593798 -0.93408197
-3.06835890 7.31640577 -0.93408197
-3.44531298 6.83593798 -0.93408197
-3.44531298 7.31640577 -0.93408197
-3.06835890 6.83593798 -0.93408197
-3.44531298 7.31640577 -1.30175805
-3.06835890 6.83593798 -1.30175805
-3.06835890 7.31640577 -1.30175805
-3.44531298 6.83593798 -1.30175805
-3.44531298 7.99609423 0.73046899
-3.44531298 8.15625000 1.09863305
-3.44531298 7.99609423 1.09863305
-3.44531298 8.15625000 0.73046899
-3.44531298 7.99609423 1.09863305
-3.06835890 8.15625000 1.09863305
-3.06835890 7.99609423 1.09863305
-3.44531298 8.15625000 1.09863305
-3.06835890 7.99609423 0.73046899
-3.44531298 8.15625000 0.73046899
-3.44531298 7.99609423 0.73046899
-3.06835890 8.15625000 0.73046899
-3.44531298 7.31640577 1.09863305
-3.44531298 6.83593798 0.73046899
-3.44531298 7.31640577 0.73046899
-3.44531298 6.83593798 1.09863305
-3.06835890 7.31640577 1.09863305
-3.44531298 6.83593798 1.09863305
-3.44531298 7.31640577 1.09863305
-3.06835890 6.83593798 1.09863305
-3.44531298 7.31640577 0.73046899
-3.06835890 6.83593798 0.73046899
-3.06835890 7.31640577 0.73046899
-3.44531298 6.83593798 0.73046899
-4.07031298 6.39062500 4.23437500
-4.07031298 6.04687500 -4.29296923
-4.07031298 6.39062500 -4.29296923
-4.07031298 6.04687500 4.23437500
4.07031298 6.39062500 4.23437500
-4.07031298 6.04687500 4.23437500
-4.07031298 6.39062500 4.23437500
4.07031298 6.04687500 4.23437500
4.07031298 6.39062500 -4.29296923
4.07031298 6.04687500 4.23437500
4.07031298 6.39062500 4.23437500
4.07031298 6.04687500 -4.29296923
-4.07031298 6.39062500 -4.29296923
4.07031298 6.04687500 -4.29296923
4.07031298 6.39062500 -4.29296923
-4.07031298 6.04687500 -4.29296923
-4.07031298 6.39062500 -4.29296923
-2.69921899 6.39062500 2.98828101
-4.07031298 6.39062500 4.23437500
-2.69921899 6.39062500 -3.04687500
-4.07031298 6.39062500 4.23437500
2.69921899 6.39062500 2.98828101
4.07031298 6.39062500 4.23437500
-2.69921899 6.39062500 2.98828101
4.07031298 6.39062500 4.23437500
2.69921899 6.39062500 -3.04687500
4.07031298 6.39062500 -4.29296923
2.69921899 6.39062500 2.98828101
4.07031298 6.39062500 -4.29296923
-2.69921899 6.39062500 -3.04687500
-4.07031298 6.39062500 -4.29296923
2.69921899 6.39062500 -3.04687500
-3.58007789 7.39453077 -3.77734399
-3.58007789 8.02343845 -2.85937500
-3.58007789 7.39453077 -2.85937500
-3.58007789 8.02343845 -3.77734399
-3.58007789 7.39453077 -2.85937500
-2.65039110 8.02343845 -2.85937500
-2.65039110 7.39453077 -2.85937500
-3.58007789 8.02343845 -2.85937500
-2.65039110 7.39453077 -2.85937500
-2.65039110 8.02343845 -3.77734399
-2.65039110 7.39453077 -3.77734399
-2.65039110 8.02343845 -2.85937500
-2.65039110 7.39453077 -3.77734399
-3.58007789 8.02343845 -3.77734399
-3.58007789 7.39453077 -3.77734399
-2.65039110 8.02343845 -3.77734399
-1.87597704 36.06250000 1.90331995
0.06835900 35.93750000 1.89160204
-1.87597704 35.96875000 1.90331995
0.06835900 36.00000000 1.89160204
1.98730505 35.96875000 1.89941394
1.98730505 36.06250000 1.89941394
0.06835900 36.00000000 1.89160204
1.16699195 36.31250000 1.08105505
1.98730505 36.06250000 1.89941394
0.04946900 36.28125000 1.07519495
0.04312100 36.81250000 -0.09326200
1.16699195 36.31250000 1.08105505
0.04946900 36.28125000 1.07519495
-1.07421899 36.31250000 1.06543005
0.06835900 36.00000000 1.89160204
-1.87597704 36.06250000 1.90331995
-1.07421899 36.31250000 1.06543005
1.98730505 36.06250000 1.89941394
1.98339796 35.93750000 -0.09759500
1.98730505 35.96875000 1.89941394
1.98339796 36.00000000 -0.09759500
1.96191394 35.96875000 -2.08984399
1.96191394 36.06250000 -2.08984399
1.98339796 36.00000000 -0.09759500
1.16113305 36.31250000 -1.25195301
1.96191394 36.06250000 -2.08984399
1.16699195 36.28125000 -0.07788100
0.04312100 36.81250000 -0.09326200
1.16113305 36.31250000 -1.25195301
1.16699195 36.28125000 -0.07788100
1.16699195 36.31250000 1.08105505
1.98730505 36.06250000 1.89941394
1.16699195 36.31250000 1.08105505
1.96191394 36.06250000 -2.08984399
0.01786800 35.93750000 -2.07812500
1.96191394 35.96875000 -2.08984399
0.01786800 36.00000000 -2.07812500
-1.90136695 35.96875000 -2.08593798
-1.90136695 36.06250000 -2.08593798
0.01786800 36.00000000 -2.07812500
-1.08105505 36.31250000 -1.26757801
-1.90136695 36.06250000 -2.08593798
0.03680400 36.28125000 -1.26171899
0.04312100 36.81250000 -0.09326200
-1.08105505 36.31250000 -1.26757801
0.03680400 36.28125000 -1.26171899
1.16113305 36.31250000 -1.25195301
0.01786800 36.00000000 -2.07812500
1.96191394 36.06250000 -2.08984399
1.16113305 36.31250000 -1.25195301
-1.90136695 36.06250000 -2.08593798
-1.89648402 35.93750000 -0.08886700
-1.90136695 35.96875000 -2.08593798
-1.89648402 36.00000000 -0.08886700
-1.87597704 35.96875000 1.90331995
-1.87597704 36.06250000 1.90331995
-1.89648402 36.00000000 -0.08886700
-1.07421899 36.31250000 1.06543005
-1.87597704 36.06250000 1.90331995
-1.08007801 36.28125000 -0.10864300
0.04312100 36.81250000 -0.09326200
-1.07421899 36.31250000 1.06543005
-1.08007801 36.28125000 -0.10864300
-1.08105505 36.31250000 -1.26757801
-1.90136695 36.06250000 -2.08593798
-1.08105505 36.31250000 -1.26757801
2.41015601 34.31250000 -0.07745400
2.41015601 34.46875000 2.47265601
2.41015601 34.46875000 -0.07745400
2.41015601 34.37500000 2.47265601
2.41015601 34.46875000 -0.07745400
2.41015601 34.37500000 -2.62695289
2.41015601 34.31250000 -0.07745400
2.41015601 34.46875000 -2.62695289
2.41015601 34.46875000 -0.07745400
1.24902296 34.84375000 -1.47949195
2.41015601 34.46875000 -2.62695289
1.24902296 34.84375000 -0.07745400
2.41015601 34.46875000 2.47265601
1.24902296 34.84375000 -0.07745400
2.41015601 34.46875000 -0.07745400
1.24902296 34.84375000 1.32421899
-0.00443300 34.31250000 2.47265601
-2.41796899 34.46875000 2.47265601
-0.00443300 34.46875000 2.47265601
-2.41796899 34.37500000 2.47265601
2.41015601 34.37500000 2.47265601
2.41015601 34.46875000 2.47265601
1.24902296 34.84375000 1.32421899
-0.00443300 34.46875000 2.47265601
-0.00443300 34.84375000 1.32421899
2.41015601 34.46875000 2.47265601
-1.25781298 34.84375000 1.32421899
-2.41796899 34.46875000 2.47265601
-2.41796899 34.31250000 -0.07739300
-2.41796899 34.46875000 -2.62695289
-2.41796899 34.46875000 -0.07739300
-2.41796899 34.37500000 -2.62695289
-2.41796899 34.46875000 -0.07739300
-2.41796899 34.37500000 2.47265601
-2.41796899 34.31250000 -0.07739300
-2.41796899 34.46875000 2.47265601
-2.41796899 34.46875000 -0.07739300
-1.25781298 34.84375000 1.32421899
-2.41796899 34.46875000 2.47265601
-1.25781298 34.84375000 -0.07745400
-2.41796899 34.46875000 -2.62695289
-1.25781298 34.84375000 -0.07745400
-2.41796899 34.46875000 -0.07739300
-1.25781298 34.84375000 -1.47949195
-0.00444000 34.31250000 -2.62695289
2.41015601 34.46875000 -2.62695289
-0.00444000 34.46875000 -2.62695289
2.41015601 34.37500000 -2.62695289
-2.41796899 34.37500000 -2.62695289
-2.41796899 34.46875000 -2.62695289
-1.25781298 34.84375000 -1.47949195
-0.00444000 34.46875000 -2.62695289
-0.00443600 34.84375000 -1.47949195
-2.41796899 34.46875000 -2.62695289
1.24902296 34.84375000 -1.47949195
2.41015601 34.46875000 -2.62695289
[...]
POINT_DATA 5828
COLOR_SCALARS RGB 3
0.32941177 0.32941177 0.29803923
0.38431373 0.38431373 0.35294119
0.38431373 0.38431373 0.35294119
0.34509805 0.34509805 0.34509805
0.36078432 0.36078432 0.36078432
0.38431373 0.38431373 0.35294119
0.38431373 0.38431373 0.35294119
0.34509805 0.34509805 0.34509805
0.36078432 0.36078432 0.36078432
0.38431373 0.38431373 0.35294119
0.38431373 0.38431373 0.35294119
0.34509805 0.34509805 0.34509805
0.36078432 0.36078432 0.36078432
0.38431373 0.38431373 0.35294119
0.38431373 0.38431373 0.35294119
0.34509805 0.34509805 0.34509805
0.36078432 0.36078432 0.36078432
0.36078432 0.32941177 0.29803923
0.34509805 0.34509805 0.34509805
0.38431373 0.38431373 0.35294119
0.23529412 0.16862746 0.03529412
0.30980393 0.24313726 0.11372549
0.03921569 0.03921569 0.00000000
0.31372550 0.25098041 0.15294118
0.23529412 0.16862746 0.03529412
0.32941177 0.26666668 0.10196079
0.21568628 0.21568628 0.08235294
0.31372550 0.25098041 0.15294118
0.03921569 0.03921569 0.00000000
0.31372550 0.25098041 0.15294118
0.23529412 0.16862746 0.03529412
0.23921569 0.17254902 0.07450981
0.29411766 0.29411766 0.23137255
0.31372550 0.25098041 0.15294118
0.29019609 0.25882354 0.22745098
0.32941177 0.26666668 0.10196079
0.23529412 0.16862746 0.03529412
0.30980393 0.24313726 0.11372549
0.03921569 0.03921569 0.00000000
0.31372550 0.25098041 0.15294118
0.23529412 0.16862746 0.03529412
0.32941177 0.26666668 0.10196079
0.21568628 0.21568628 0.08235294
0.31372550 0.25098041 0.15294118
0.03921569 0.03921569 0.00000000
0.31372550 0.25098041 0.15294118
0.23529412 0.16862746 0.03529412
0.23921569 0.17254902 0.07450981
0.29411766 0.29411766 0.23137255
0.31372550 0.25098041 0.15294118
0.29019609 0.25882354 0.22745098
0.32941177 0.26666668 0.10196079
0.23529412 0.16862746 0.03529412
0.30980393 0.24313726 0.11372549
0.03921569 0.03921569 0.00000000
0.31372550 0.25098041 0.15294118
0.23529412 0.16862746 0.03529412
0.32941177 0.26666668 0.10196079
0.21568628 0.21568628 0.08235294
0.31372550 0.25098041 0.15294118
0.03921569 0.03921569 0.00000000
0.31372550 0.25098041 0.15294118
0.23529412 0.16862746 0.03529412
0.23921569 0.17254902 0.07450981
0.29411766 0.29411766 0.23137255
0.31372550 0.25098041 0.15294118
0.29019609 0.25882354 0.22745098
0.32941177 0.26666668 0.10196079
0.01176471 0.01176471 0.01176471
0.58039218 0.51372552 0.31372550
0.04313726 0.04313726 0.01176471
0.61960787 0.48627451 0.21960784
0.01176471 0.01176471 0.01176471
0.58039218 0.51372552 0.31372550
0.04313726 0.04313726 0.01176471
0.61960787 0.48627451 0.21960784
0.01176471 0.01176471 0.01176471
0.58039218 0.51372552 0.31372550
0.04313726 0.04313726 0.01176471
0.61960787 0.48627451 0.21960784
0.58039218 0.51372552 0.31372550
0.01176471 0.01176471 0.01176471
0.61960787 0.48627451 0.21960784
0.04313726 0.04313726 0.01176471
0.58039218 0.51372552 0.31372550
0.01176471 0.01176471 0.01176471
0.61960787 0.48627451 0.21960784
0.04313726 0.04313726 0.01176471
0.58039218 0.51372552 0.31372550
0.01176471 0.01176471 0.01176471
0.61960787 0.48627451 0.21960784
0.04313726 0.04313726 0.01176471
0.01176471 0.01176471 0.01176471
0.58039218 0.51372552 0.31372550
0.04313726 0.04313726 0.01176471
0.61960787 0.48627451 0.21960784
0.01176471 0.01176471 0.01176471
0.58039218 0.51372552 0.31372550
0.04313726 0.04313726 0.01176471
0.61960787 0.48627451 0.21960784
0.01176471 0.01176471 0.01176471
0.58039218 0.51372552 0.31372550
0.04313726 0.04313726 0.01176471
0.61960787 0.48627451 0.21960784
0.58039218 0.51372552 0.31372550
0.01176471 0.01176471 0.01176471
0.61960787 0.48627451 0.21960784
0.04313726 0.04313726 0.01176471
0.58039218 0.51372552 0.31372550
0.01176471 0.01176471 0.01176471
0.61960787 0.48627451 0.21960784
0.04313726 0.04313726 0.01176471
0.58039218 0.51372552 0.31372550
0.01176471 0.01176471 0.01176471
0.61960787 0.48627451 0.21960784
0.04313726 0.04313726 0.01176471
0.38039216 0.34509805 0.34509805
0.23137255 0.16862746 0.07058824
0.35686275 0.35686275 0.38823530
0.25490198 0.19215687 0.09411765
0.38039216 0.34509805 0.34509805
0.23137255 0.16862746 0.07058824
0.39607844 0.39607844 0.42745098
0.25490198 0.19215687 0.09411765
0.38039216 0.34509805 0.34509805
0.26666668 0.20000000 0.07058824
0.39607844 0.39607844 0.42745098
0.26666668 0.20000000 0.07058824
0.38039216 0.34509805 0.34509805
0.23137255 0.16862746 0.07058824
0.39607844 0.39607844 0.42745098
0.25490198 0.19215687 0.09411765
0.35686275 0.35686275 0.38823530
0.28627452 0.28627452 0.28627452
0.38039216 0.34509805 0.34509805
0.25882354 0.25882354 0.25882354
0.39607844 0.39607844 0.42745098
0.25098041 0.25098041 0.21568628
0.38039216 0.34509805 0.34509805
0.25490198 0.25490198 0.22352941
0.39607844 0.39607844 0.42745098
0.33333334 0.33333334 0.33333334
0.38039216 0.34509805 0.34509805
0.28235295 0.28235295 0.21568628
0.39607844 0.39607844 0.42745098
0.25098041 0.25098041 0.21568628
0.38039216 0.34509805 0.34509805
0.25490198 0.25490198 0.22352941
0.23529412 0.16862746 0.03529412
0.30980393 0.24313726 0.11372549
0.03921569 0.03921569 0.00000000
0.31372550 0.25098041 0.15294118
0.23529412 0.16862746 0.03529412
0.32941177 0.26666668 0.10196079
0.21568628 0.21568628 0.08235294
0.31372550 0.25098041 0.15294118
0.03921569 0.03921569 0.00000000
0.31372550 0.25098041 0.15294118
0.23529412 0.16862746 0.03529412
0.23921569 0.17254902 0.07450981
0.29411766 0.29411766 0.23137255
0.31372550 0.25098041 0.15294118
0.29019609 0.25882354 0.22745098
0.32941177 0.26666668 0.10196079
0.22745098 0.22745098 0.19607843
0.13725491 0.10196079 0.07058824
0.13725491 0.07058824 0.07058824
0.25882354 0.25882354 0.22745098
0.13725491 0.07058824 0.07058824
0.22745098 0.22745098 0.19607843
0.25882354 0.25882354 0.22745098
0.21568628 0.21568628 0.21568628
0.22745098 0.22745098 0.19607843
0.23921569 0.20784314 0.17254902
0.27450982 0.27450982 0.20784314
0.12941177 0.12941177 0.12941177
0.06666667 0.06666667 0.06666667
0.06274510 0.06274510 0.06274510
0.25882354 0.25882354 0.22745098
0.22745098 0.22745098 0.19607843
0.20392157 0.17254902 0.17254902
0.22745098 0.22745098 0.19607843
0.13725491 0.10196079 0.07058824
0.13725491 0.07058824 0.07058824
0.25882354 0.25882354 0.22745098
0.13725491 0.07058824 0.07058824
0.22745098 0.22745098 0.19607843
0.25882354 0.25882354 0.22745098
0.21568628 0.21568628 0.21568628
0.22745098 0.22745098 0.19607843
0.23921569 0.20784314 0.17254902
0.27450982 0.27450982 0.20784314
0.12941177 0.12941177 0.12941177
0.06666667 0.06666667 0.06666667
0.06274510 0.06274510 0.06274510
0.22745098 0.22745098 0.19607843
0.20392157 0.17254902 0.17254902
0.22745098 0.22745098 0.19607843
0.13725491 0.10196079 0.07058824
0.13725491 0.07058824 0.07058824
0.25882354 0.25882354 0.22745098
0.13725491 0.07058824 0.07058824
0.22745098 0.22745098 0.19607843
0.25882354 0.25882354 0.22745098
0.21568628 0.21568628 0.21568628
0.22745098 0.22745098 0.19607843
0.23921569 0.20784314 0.17254902
0.27450982 0.27450982 0.20784314
0.12941177 0.12941177 0.12941177
0.06666667 0.06666667 0.06666667
0.06274510 0.06274510 0.06274510
0.25882354 0.25882354 0.22745098
0.22745098 0.22745098 0.19607843
0.20392157 0.17254902 0.17254902
0.22745098 0.22745098 0.19607843
0.13725491 0.10196079 0.07058824
0.13725491 0.07058824 0.07058824
0.25882354 0.25882354 0.22745098
0.13725491 0.07058824 0.07058824
0.22745098 0.22745098 0.19607843
0.25882354 0.25882354 0.22745098
0.21568628 0.21568628 0.21568628
0.22745098 0.22745098 0.19607843
0.23921569 0.20784314 0.17254902
0.27450982 0.27450982 0.20784314
0.12941177 0.12941177 0.12941177
0.06666667 0.06666667 0.06666667
0.06274510 0.06274510 0.06274510
0.22745098 0.22745098 0.19607843
0.20392157 0.17254902 0.17254902
0.12156863 0.08627451 0.08627451
0.08235294 0.08235294 0.08235294
0.06666667 0.06666667 0.06666667
0.13725491 0.07058824 0.07058824
0.06666667 0.06666667 0.06666667
0.13725491 0.07058824 0.07058824
0.12156863 0.08627451 0.08627451
0.08235294 0.08235294 0.08235294
0.06666667 0.06666667 0.06666667
0.25490198 0.25490198 0.25490198
0.07450981 0.07450981 0.07450981
0.23921569 0.20784314 0.17254902
0.08235294 0.08235294 0.08235294
0.23921569 0.20784314 0.17254902
0.06666667 0.06666667 0.06666667
0.28235295 0.25098041 0.25098041
0.12156863 0.08627451 0.08627451
0.04313726 0.04313726 0.04313726
0.06666667 0.06666667 0.06666667
0.13725491 0.07058824 0.07058824
0.13725491 0.07058824 0.07058824
0.08235294 0.08235294 0.08235294
0.09803922 0.09803922 0.09803922
0.06666667 0.06666667 0.06666667
0.23921569 0.20784314 0.17254902
0.08235294 0.08235294 0.08235294
0.12156863 0.12156863 0.12156863
0.04313726 0.04313726 0.04313726
0.12156863 0.08627451 0.08627451
0.08235294 0.08235294 0.08235294
0.06666667 0.06666667 0.06666667
0.13725491 0.07058824 0.07058824
0.06666667 0.06666667 0.06666667
0.13725491 0.07058824 0.07058824
0.12156863 0.08627451 0.08627451
0.08235294 0.08235294 0.08235294
0.06666667 0.06666667 0.06666667
0.25490198 0.25490198 0.25490198
0.07450981 0.07450981 0.07450981
0.23921569 0.20784314 0.17254902
0.08235294 0.08235294 0.08235294
0.23921569 0.20784314 0.17254902
0.06666667 0.06666667 0.06666667
0.28235295 0.25098041 0.25098041
0.12156863 0.08627451 0.08627451
0.04313726 0.04313726 0.04313726
0.06666667 0.06666667 0.06666667
0.13725491 0.07058824 0.07058824
0.13725491 0.07058824 0.07058824
0.08235294 0.08235294 0.08235294
0.09803922 0.09803922 0.09803922
0.06666667 0.06666667 0.06666667
0.23921569 0.20784314 0.17254902
0.08235294 0.08235294 0.08235294
0.12156863 0.12156863 0.12156863
0.04313726 0.04313726 0.04313726
0.12156863 0.08627451 0.08627451
0.08235294 0.08235294 0.08235294
0.06666667 0.06666667 0.06666667
0.13725491 0.07058824 0.07058824
0.06666667 0.06666667 0.06666667
0.13725491 0.07058824 0.07058824
0.12156863 0.08627451 0.08627451
0.08235294 0.08235294 0.08235294
0.06666667 0.06666667 0.06666667
0.25490198 0.25490198 0.25490198
0.07450981 0.07450981 0.07450981
0.23921569 0.20784314 0.17254902
0.08235294 0.08235294 0.08235294
0.23921569 0.20784314 0.17254902
0.06666667 0.06666667 0.06666667
0.28235295 0.25098041 0.25098041
0.12156863 0.08627451 0.08627451
0.04313726 0.04313726 0.04313726
0.06666667 0.06666667 0.06666667
0.13725491 0.07058824 0.07058824
0.13725491 0.07058824 0.07058824
0.08235294 0.08235294 0.08235294
0.09803922 0.09803922 0.09803922
0.06666667 0.06666667 0.06666667
0.23921569 0.20784314 0.17254902
0.08235294 0.08235294 0.08235294
0.12156863 0.12156863 0.12156863
0.04313726 0.04313726 0.04313726
0.12156863 0.08627451 0.08627451
0.08235294 0.08235294 0.08235294
0.06666667 0.06666667 0.06666667
0.13725491 0.07058824 0.07058824
0.06666667 0.06666667 0.06666667
0.13725491 0.07058824 0.07058824
0.12156863 0.08627451 0.08627451
0.08235294 0.08235294 0.08235294
0.06666667 0.06666667 0.06666667
0.25490198 0.25490198 0.25490198
0.07450981 0.07450981 0.07450981
0.23921569 0.20784314 0.17254902
0.08235294 0.08235294 0.08235294
0.23921569 0.20784314 0.17254902
0.06666667 0.06666667 0.06666667
0.28235295 0.25098041 0.25098041
0.12156863 0.08627451 0.08627451
0.04313726 0.04313726 0.04313726
0.06666667 0.06666667 0.06666667
0.13725491 0.07058824 0.07058824
0.13725491 0.07058824 0.07058824
0.08235294 0.08235294 0.08235294
0.09803922 0.09803922 0.09803922
0.06666667 0.06666667 0.06666667
0.23921569 0.20784314 0.17254902
0.08235294 0.08235294 0.08235294
0.12156863 0.12156863 0.12156863
0.04313726 0.04313726 0.04313726
0.12156863 0.08627451 0.08627451
0.08235294 0.08235294 0.08235294
0.06666667 0.06666667 0.06666667
0.13725491 0.07058824 0.07058824
0.06666667 0.06666667 0.06666667
0.13725491 0.07058824 0.07058824
0.12156863 0.08627451 0.08627451
0.08235294 0.08235294 0.08235294
0.06666667 0.06666667 0.06666667
0.25490198 0.25490198 0.25490198
0.07450981 0.07450981 0.07450981
0.23921569 0.20784314 0.17254902
0.08235294 0.08235294 0.08235294
0.23921569 0.20784314 0.17254902
0.06666667 0.06666667 0.06666667
0.28235295 0.25098041 0.25098041
0.12156863 0.08627451 0.08627451
0.04313726 0.04313726 0.04313726
0.06666667 0.06666667 0.06666667
0.13725491 0.07058824 0.07058824
0.13725491 0.07058824 0.07058824
0.08235294 0.08235294 0.08235294
0.09803922 0.09803922 0.09803922
0.06666667 0.06666667 0.06666667
0.23921569 0.20784314 0.17254902
0.08235294 0.08235294 0.08235294
0.12156863 0.12156863 0.12156863
0.04313726 0.04313726 0.04313726
0.12156863 0.08627451 0.08627451
0.08235294 0.08235294 0.08235294
0.06666667 0.06666667 0.06666667
0.13725491 0.07058824 0.07058824
0.06666667 0.06666667 0.06666667
0.13725491 0.07058824 0.07058824
0.12156863 0.08627451 0.08627451
0.08235294 0.08235294 0.08235294
0.06666667 0.06666667 0.06666667
0.25490198 0.25490198 0.25490198
0.07450981 0.07450981 0.07450981
0.23921569 0.20784314 0.17254902
0.08235294 0.08235294 0.08235294
0.23921569 0.20784314 0.17254902
0.06666667 0.06666667 0.06666667
0.28235295 0.25098041 0.25098041
0.12156863 0.08627451 0.08627451
0.04313726 0.04313726 0.04313726
0.06666667 0.06666667 0.06666667
0.13725491 0.07058824 0.07058824
0.13725491 0.07058824 0.07058824
0.08235294 0.08235294 0.08235294
0.09803922 0.09803922 0.09803922
0.06666667 0.06666667 0.06666667
0.23921569 0.20784314 0.17254902
0.08235294 0.08235294 0.08235294
0.12156863 0.12156863 0.12156863
0.04313726 0.04313726 0.04313726
0.12156863 0.08627451 0.08627451
0.08235294 0.08235294 0.08235294
0.06666667 0.06666667 0.06666667
0.13725491 0.07058824 0.07058824
0.06666667 0.06666667 0.06666667
0.13725491 0.07058824 0.07058824
0.12156863 0.08627451 0.08627451
0.08235294 0.08235294 0.08235294
0.06666667 0.06666667 0.06666667
0.25490198 0.25490198 0.25490198
0.07450981 0.07450981 0.07450981
0.23921569 0.20784314 0.17254902
0.08235294 0.08235294 0.08235294
0.23921569 0.20784314 0.17254902
0.06666667 0.06666667 0.06666667
0.28235295 0.25098041 0.25098041
0.12156863 0.08627451 0.08627451
0.04313726 0.04313726 0.04313726
0.06666667 0.06666667 0.06666667
0.13725491 0.07058824 0.07058824
0.13725491 0.07058824 0.07058824
0.08235294 0.08235294 0.08235294
0.09803922 0.09803922 0.09803922
0.06666667 0.06666667 0.06666667
0.23921569 0.20784314 0.17254902
0.08235294 0.08235294 0.08235294
0.12156863 0.12156863 0.12156863
0.04313726 0.04313726 0.04313726
0.12156863 0.08627451 0.08627451
0.08235294 0.08235294 0.08235294
0.06666667 0.06666667 0.06666667
0.13725491 0.07058824 0.07058824
0.06666667 0.06666667 0.06666667
0.13725491 0.07058824 0.07058824
0.12156863 0.08627451 0.08627451
0.08235294 0.08235294 0.08235294
0.06666667 0.06666667 0.06666667
0.25490198 0.25490198 0.25490198
0.07450981 0.07450981 0.07450981
0.23921569 0.20784314 0.17254902
0.08235294 0.08235294 0.08235294
0.23921569 0.20784314 0.17254902
0.06666667 0.06666667 0.06666667
0.28235295 0.25098041 0.25098041
0.12156863 0.08627451 0.08627451
0.04313726 0.04313726 0.04313726
0.06666667 0.06666667 0.06666667
0.13725491 0.07058824 0.07058824
0.13725491 0.07058824 0.07058824
0.08235294 0.08235294 0.08235294
0.09803922 0.09803922 0.09803922
0.06666667 0.06666667 0.06666667
0.23921569 0.20784314 0.17254902
0.08235294 0.08235294 0.08235294
0.12156863 0.12156863 0.12156863
0.04313726 0.04313726 0.04313726
0.12156863 0.08627451 0.08627451
0.08235294 0.08235294 0.08235294
0.06666667 0.06666667 0.06666667
0.13725491 0.07058824 0.07058824
0.06666667 0.06666667 0.06666667
0.13725491 0.07058824 0.07058824
0.12156863 0.08627451 0.08627451
0.08235294 0.08235294 0.08235294
0.06666667 0.06666667 0.06666667
0.25490198 0.25490198 0.25490198
0.07450981 0.07450981 0.07450981
0.23921569 0.20784314 0.17254902
0.08235294 0.08235294 0.08235294
0.23921569 0.20784314 0.17254902
0.06666667 0.06666667 0.06666667
0.28235295 0.25098041 0.25098041
0.12156863 0.08627451 0.08627451
0.04313726 0.04313726 0.04313726
0.06666667 0.06666667 0.06666667
0.13725491 0.07058824 0.07058824
0.13725491 0.07058824 0.07058824
0.08235294 0.08235294 0.08235294
0.09803922 0.09803922 0.09803922
0.06666667 0.06666667 0.06666667
0.23921569 0.20784314 0.17254902
0.08235294 0.08235294 0.08235294
0.12156863 0.12156863 0.12156863
0.04313726 0.04313726 0.04313726
0.12156863 0.08627451 0.08627451
0.08235294 0.08235294 0.08235294
0.06666667 0.06666667 0.06666667
0.13725491 0.07058824 0.07058824
0.06666667 0.06666667 0.06666667
0.13725491 0.07058824 0.07058824
0.12156863 0.08627451 0.08627451
0.08235294 0.08235294 0.08235294
0.06666667 0.06666667 0.06666667
0.25490198 0.25490198 0.25490198
0.07450981 0.07450981 0.07450981
0.23921569 0.20784314 0.17254902
0.08235294 0.08235294 0.08235294
0.23921569 0.20784314 0.17254902
0.06666667 0.06666667 0.06666667
0.28235295 0.25098041 0.25098041
0.12156863 0.08627451 0.08627451
0.04313726 0.04313726 0.04313726
0.06666667 0.06666667 0.06666667
0.13725491 0.07058824 0.07058824
0.13725491 0.07058824 0.07058824
0.08235294 0.08235294 0.08235294
0.09803922 0.09803922 0.09803922
0.06666667 0.06666667 0.06666667
0.23921569 0.20784314 0.17254902
0.08235294 0.08235294 0.08235294
0.12156863 0.12156863 0.12156863
0.04313726 0.04313726 0.04313726
0.12156863 0.08627451 0.08627451
0.08235294 0.08235294 0.08235294
0.06666667 0.06666667 0.06666667
0.13725491 0.07058824 0.07058824
0.06666667 0.06666667 0.06666667
0.13725491 0.07058824 0.07058824
0.12156863 0.08627451 0.08627451
0.08235294 0.08235294 0.08235294
0.06666667 0.06666667 0.06666667
0.25490198 0.25490198 0.25490198
0.07450981 0.07450981 0.07450981
0.23921569 0.20784314 0.17254902
0.08235294 0.08235294 0.08235294
0.23921569 0.20784314 0.17254902
0.06666667 0.06666667 0.06666667
0.28235295 0.25098041 0.25098041
0.12156863 0.08627451 0.08627451
0.04313726 0.04313726 0.04313726
0.06666667 0.06666667 0.06666667
0.13725491 0.07058824 0.07058824
0.13725491 0.07058824 0.07058824
0.08235294 0.08235294 0.08235294
0.09803922 0.09803922 0.09803922
0.06666667 0.06666667 0.06666667
0.23921569 0.20784314 0.17254902
0.08235294 0.08235294 0.08235294
0.12156863 0.12156863 0.12156863
0.04313726 0.04313726 0.04313726
0.12156863 0.08627451 0.08627451
0.08235294 0.08235294 0.08235294
0.06666667 0.06666667 0.06666667
0.13725491 0.07058824 0.07058824
0.06666667 0.06666667 0.06666667
0.13725491 0.07058824 0.07058824
0.12156863 0.08627451 0.08627451
0.08235294 0.08235294 0.08235294
0.06666667 0.06666667 0.06666667
0.25490198 0.25490198 0.25490198
0.07450981 0.07450981 0.07450981
0.23921569 0.20784314 0.17254902
0.08235294 0.08235294 0.08235294
0.23921569 0.20784314 0.17254902
0.06666667 0.06666667 0.06666667
0.28235295 0.25098041 0.25098041
0.12156863 0.08627451 0.08627451
0.04313726 0.04313726 0.04313726
0.06666667 0.06666667 0.06666667
0.13725491 0.07058824 0.07058824
0.13725491 0.07058824 0.07058824
0.08235294 0.08235294 0.08235294
0.09803922 0.09803922 0.09803922
0.06666667 0.06666667 0.06666667
0.23921569 0.20784314 0.17254902
0.08235294 0.08235294 0.08235294
0.12156863 0.12156863 0.12156863
0.04313726 0.04313726 0.04313726
0.12156863 0.08627451 0.08627451
0.08235294 0.08235294 0.08235294
0.06666667 0.06666667 0.06666667
0.13725491 0.07058824 0.07058824
0.06666667 0.06666667 0.06666667
0.13725491 0.07058824 0.07058824
0.12156863 0.08627451 0.08627451
0.08235294 0.08235294 0.08235294
0.06666667 0.06666667 0.06666667
0.25490198 0.25490198 0.25490198
0.07450981 0.07450981 0.07450981
0.23921569 0.20784314 0.17254902
0.08235294 0.08235294 0.08235294
0.23921569 0.20784314 0.17254902
0.06666667 0.06666667 0.06666667
0.28235295 0.25098041 0.25098041
0.12156863 0.08627451 0.08627451
0.04313726 0.04313726 0.04313726
0.06666667 0.06666667 0.06666667
0.13725491 0.07058824 0.07058824
0.13725491 0.07058824 0.07058824
0.08235294 0.08235294 0.08235294
0.09803922 0.09803922 0.09803922
0.06666667 0.06666667 0.06666667
0.23921569 0.20784314 0.17254902
0.08235294 0.08235294 0.08235294
0.12156863 0.12156863 0.12156863
0.04313726 0.04313726 0.04313726
0.12156863 0.08627451 0.08627451
0.08235294 0.08235294 0.08235294
0.06666667 0.06666667 0.06666667
0.13725491 0.07058824 0.07058824
0.06666667 0.06666667 0.06666667
0.13725491 0.07058824 0.07058824
0.12156863 0.08627451 0.08627451
0.08235294 0.08235294 0.08235294
0.06666667 0.06666667 0.06666667
0.25490198 0.25490198 0.25490198